# vtk DataFile Version 3.0
a stupid file
ASCII
DATASET UNSTRUCTURED_GRID
POINTS 5 float
istep =         2350000
    6.873565    6.132933    0.113336
   16.510973    5.247864   17.142460
    5.508279    0.155421    0.520381
    4.466522    7.108118    1.343115
    3.448321   13.457537    6.471737

CELL_TYPES 5
1
1
1
1
1

POINT_DATA 5
SCALARS index float 1
LOOKUP_TABLE default
  1.0
  1.0
  1.0
  1.0
  1.0
