# vtk DataFile Version 3.0
a stupid file
ASCII
DATASET UNSTRUCTURED_GRID
POINTS 5 float
istep =         2150000
    6.873565    9.636637    0.113336
   16.510973    1.939918   17.142460
    5.508279    3.496307    0.520381
    4.466522   10.119910    1.343115
    3.448321   14.417880    6.471737

CELL_TYPES 5
1
1
1
1
1

POINT_DATA 5
SCALARS index float 1
LOOKUP_TABLE default
  1.0
  1.0
  1.0
  1.0
  1.0
