# vtk DataFile Version 3.0
a stupid file
ASCII
DATASET UNSTRUCTURED_GRID
POINTS 5 float
istep =         1750000
    6.873565   16.644045    0.113336
   16.510973   13.069218   17.142460
    5.508279   10.178079    0.520381
    4.466522   16.143495    1.343115
    3.448321   16.338567    6.471737

CELL_TYPES 5
1
1
1
1
1

POINT_DATA 5
SCALARS index float 1
LOOKUP_TABLE default
  1.0
  1.0
  1.0
  1.0
  1.0
