# vtk DataFile Version 3.0
a stupid file
ASCII
DATASET UNSTRUCTURED_GRID
POINTS 5 float
istep =          900000
    6.873565   13.789596    0.113336
   16.510973   16.755640   17.142460
    5.508279    6.631653    0.520381
    4.466522   11.198421    1.343115
    3.448321    2.674835    6.471737

CELL_TYPES 5
1
1
1
1
1

POINT_DATA 5
SCALARS index float 1
LOOKUP_TABLE default
  1.0
  1.0
  1.0
  1.0
  1.0
