# vtk DataFile Version 3.0
a stupid file
ASCII
DATASET UNSTRUCTURED_GRID
POINTS 5 float
istep =         3150000
    6.873565    9.863308    0.113336
   16.510973    0.734456   17.142460
    5.508279    4.537068    0.520381
    4.466522   12.806140    1.343115
    3.448321    9.616163    6.471737
 
CELL_TYPES 5
1
1
1
1
1
 
POINT_DATA 5
SCALARS index float 1
LOOKUP_TABLE default
  1.0
  1.0
  1.0
  1.0
  1.0
