# vtk DataFile Version 3.0
a stupid file
ASCII
DATASET UNSTRUCTURED_GRID
POINTS 5 float
istep =         7700000
    6.873565    1.134806    0.113336
   16.510973    5.009459   17.142460
    5.508279   17.257868    0.520381
    4.466522   15.268631    1.343115
    3.448321    5.513542    6.471737
 
CELL_TYPES 5
1
1
1
1
1
 
POINT_DATA 5
SCALARS index float 1
LOOKUP_TABLE default
  1.0
  1.0
  1.0
  1.0
  1.0
