# vtk DataFile Version 3.0
a stupid file
ASCII
DATASET UNSTRUCTURED_GRID
POINTS 5 float
istep =        27000000
    6.873565    0.186001    0.113336
   16.510973    4.812790   17.142460
    5.508279   14.275812    0.520381
    4.466522    8.553736    1.343115
    3.448321    1.566361    6.471737
 
CELL_TYPES 5
1
1
1
1
1
 
POINT_DATA 5
SCALARS index float 1
LOOKUP_TABLE default
  1.0
  1.0
  1.0
  1.0
  1.0
