# vtk DataFile Version 3.0
a stupid file
ASCII
DATASET UNSTRUCTURED_GRID
POINTS 5 float
istep =        25400000
    6.873565   10.470442    0.113336
   16.510973   13.839606   17.142460
    5.508279    5.512517    0.520381
    4.466522   14.902883    1.343115
    3.448321    9.249109    6.471737
 
CELL_TYPES 5
1
1
1
1
1
 
POINT_DATA 5
SCALARS index float 1
LOOKUP_TABLE default
  1.0
  1.0
  1.0
  1.0
  1.0
