# vtk DataFile Version 3.0
a stupid file
ASCII
DATASET UNSTRUCTURED_GRID
POINTS 5 float
istep =        33750000
    6.873565    6.152329    0.113336
   16.510973    9.984815   17.142460
    5.508279    7.992057    0.520381
    4.466522   13.376895    1.343115
    3.448321    4.645155    6.471737
 
CELL_TYPES 5
1
1
1
1
1
 
POINT_DATA 5
SCALARS index float 1
LOOKUP_TABLE default
  1.0
  1.0
  1.0
  1.0
  1.0
