# vtk DataFile Version 3.0
a stupid file
ASCII
DATASET UNSTRUCTURED_GRID
POINTS 5 float
istep =        32750000
    6.873565    5.925658    0.113336
   16.510973   11.190277   17.142460
    5.508279    6.951296    0.520381
    4.466522   10.690665    1.343115
    3.448321    9.446872    6.471737
 
CELL_TYPES 5
1
1
1
1
1
 
POINT_DATA 5
SCALARS index float 1
LOOKUP_TABLE default
  1.0
  1.0
  1.0
  1.0
  1.0
