# vtk DataFile Version 3.0
a stupid file
ASCII
DATASET UNSTRUCTURED_GRID
POINTS 5 float
istep =        21000000
    6.873565   16.571166    0.113336
   16.510973   12.045562   17.142460
    5.508279    8.031244    0.520381
    4.466522   10.181548    1.343115
    3.448321   12.631472    6.471737
 
CELL_TYPES 5
1
1
1
1
1
 
POINT_DATA 5
SCALARS index float 1
LOOKUP_TABLE default
  1.0
  1.0
  1.0
  1.0
  1.0
