# vtk DataFile Version 3.0
a stupid file
ASCII
DATASET UNSTRUCTURED_GRID
POINTS 5 float
istep =        17100000
    6.873565   13.912630    0.113336
   16.510973    0.776192   17.142460
    5.508279    2.197756    0.520381
    4.466522   15.675924    1.343115
    3.448321   13.612977    6.471737
 
CELL_TYPES 5
1
1
1
1
1
 
POINT_DATA 5
SCALARS index float 1
LOOKUP_TABLE default
  1.0
  1.0
  1.0
  1.0
  1.0
