# vtk DataFile Version 3.0
a stupid file
ASCII
DATASET UNSTRUCTURED_GRID
POINTS 5 float
istep =         4250000
    6.873565    8.338127    0.113336
   16.510973    1.182967   17.142460
    5.508279    3.907386    0.520381
    4.466522   13.986474    1.343115
    3.448321    4.334275    6.471737
 
CELL_TYPES 5
1
1
1
1
1
 
POINT_DATA 5
SCALARS index float 1
LOOKUP_TABLE default
  1.0
  1.0
  1.0
  1.0
  1.0
