# vtk DataFile Version 3.0
a stupid file
ASCII
DATASET UNSTRUCTURED_GRID
POINTS 5 float
istep =        21300000
    6.873565   11.315610    0.113336
   16.510973   17.007481   17.142460
    5.508279    3.019915    0.520381
    4.466522    5.663860    1.343115
    3.448321   11.190957    6.471737
 
CELL_TYPES 5
1
1
1
1
1
 
POINT_DATA 5
SCALARS index float 1
LOOKUP_TABLE default
  1.0
  1.0
  1.0
  1.0
  1.0
