# vtk DataFile Version 3.0
a stupid file
ASCII
DATASET UNSTRUCTURED_GRID
POINTS 5 float
istep =         4200000
    6.873565    9.214053    0.113336
   16.510973    0.355981   17.142460
    5.508279    4.742608    0.520381
    4.466522   14.739422    1.343115
    3.448321    4.574360    6.471737
 
CELL_TYPES 5
1
1
1
1
1
 
POINT_DATA 5
SCALARS index float 1
LOOKUP_TABLE default
  1.0
  1.0
  1.0
  1.0
  1.0
