# vtk DataFile Version 3.0
a stupid file
ASCII
DATASET UNSTRUCTURED_GRID
POINTS 5 float
istep =        30450000
    6.873565   10.727872    0.113336
   16.510973    8.639282   17.142460
    5.508279    9.881102    0.520381
    4.466522    9.835894    1.343115
    3.448321    2.745629    6.471737
 
CELL_TYPES 5
1
1
1
1
1
 
POINT_DATA 5
SCALARS index float 1
LOOKUP_TABLE default
  1.0
  1.0
  1.0
  1.0
  1.0
