# vtk DataFile Version 3.0
a stupid file
ASCII
DATASET UNSTRUCTURED_GRID
POINTS 5 float
istep =         6750000
    6.873565    0.032209    0.113336
   16.510973    7.041908   17.142460
    5.508279   15.381885    0.520381
    4.466522   11.829453    1.343115
    3.448321   10.075174    6.471737
 
CELL_TYPES 5
1
1
1
1
1
 
POINT_DATA 5
SCALARS index float 1
LOOKUP_TABLE default
  1.0
  1.0
  1.0
  1.0
  1.0
