# vtk DataFile Version 3.0
a stupid file
ASCII
DATASET UNSTRUCTURED_GRID
POINTS 5 float
istep =        22300000
    6.873565   11.542281    0.113336
   16.510973   15.802019   17.142460
    5.508279    4.060676    0.520381
    4.466522    8.350090    1.343115
    3.448321    6.389240    6.471737
 
CELL_TYPES 5
1
1
1
1
1
 
POINT_DATA 5
SCALARS index float 1
LOOKUP_TABLE default
  1.0
  1.0
  1.0
  1.0
  1.0
