# vtk DataFile Version 3.0
a stupid file
ASCII
DATASET UNSTRUCTURED_GRID
POINTS 5 float
istep =         9550000
    6.873565    4.215927    0.113336
   16.510973    0.117576   17.142460
    5.508279    4.099864    0.520381
    4.466522    5.154744    1.343115
    3.448321   14.375557    6.471737
 
CELL_TYPES 5
1
1
1
1
1
 
POINT_DATA 5
SCALARS index float 1
LOOKUP_TABLE default
  1.0
  1.0
  1.0
  1.0
  1.0
