# vtk DataFile Version 3.0
a stupid file
ASCII
DATASET UNSTRUCTURED_GRID
POINTS 5 float
istep =        32600000
    6.873565    8.553436    0.113336
   16.510973    8.709317   17.142460
    5.508279    9.456960    0.520381
    4.466522   12.949509    1.343115
    3.448321   10.167129    6.471737
 
CELL_TYPES 5
1
1
1
1
1
 
POINT_DATA 5
SCALARS index float 1
LOOKUP_TABLE default
  1.0
  1.0
  1.0
  1.0
  1.0
