# vtk DataFile Version 3.0
a stupid file
ASCII
DATASET UNSTRUCTURED_GRID
POINTS 5 float
istep =        17650000
    6.873565    4.277443    0.113336
   16.510973    9.873043   17.142460
    5.508279   10.755511    0.520381
    4.466522    7.393495    1.343115
    3.448321   10.972033    6.471737
 
CELL_TYPES 5
1
1
1
1
1
 
POINT_DATA 5
SCALARS index float 1
LOOKUP_TABLE default
  1.0
  1.0
  1.0
  1.0
  1.0
