# vtk DataFile Version 3.0
a stupid file
ASCII
DATASET UNSTRUCTURED_GRID
POINTS 5 float
istep =         9100000
    6.873565   12.099261    0.113336
   16.510973   10.419889   17.142460
    5.508279   11.616857    0.520381
    4.466522   11.931276    1.343115
    3.448321   16.536330    6.471737
 
CELL_TYPES 5
1
1
1
1
1
 
POINT_DATA 5
SCALARS index float 1
LOOKUP_TABLE default
  1.0
  1.0
  1.0
  1.0
  1.0
