# vtk DataFile Version 3.0
a stupid file
ASCII
DATASET UNSTRUCTURED_GRID
POINTS 5 float
istep =         2850000
    6.873565   15.118864    0.113336
   16.510973   13.517729   17.142460
    5.508279    9.548397    0.520381
    4.466522   17.323829    1.343115
    3.448321   11.056678    6.471737
 
CELL_TYPES 5
1
1
1
1
1
 
POINT_DATA 5
SCALARS index float 1
LOOKUP_TABLE default
  1.0
  1.0
  1.0
  1.0
  1.0
