# vtk DataFile Version 3.0
a stupid file
ASCII
DATASET UNSTRUCTURED_GRID
POINTS 5 float
istep =        27250000
    6.873565   13.551562    0.113336
   16.510973    8.947722   17.142460
    5.508279   10.099704    0.520381
    4.466522    4.788996    1.343115
    3.448321    0.365932    6.471737
 
CELL_TYPES 5
1
1
1
1
1
 
POINT_DATA 5
SCALARS index float 1
LOOKUP_TABLE default
  1.0
  1.0
  1.0
  1.0
  1.0
