# vtk DataFile Version 3.0
a stupid file
ASCII
DATASET UNSTRUCTURED_GRID
POINTS 5 float
istep =        20200000
    6.873565   12.840791    0.113336
   16.510973   16.558970   17.142460
    5.508279    3.649597    0.520381
    4.466522    4.483526    1.343115
    3.448321   16.472846    6.471737
 
CELL_TYPES 5
1
1
1
1
1
 
POINT_DATA 5
SCALARS index float 1
LOOKUP_TABLE default
  1.0
  1.0
  1.0
  1.0
  1.0
