# vtk DataFile Version 3.0
a stupid file
ASCII
DATASET UNSTRUCTURED_GRID
POINTS 5 float
istep =        32250000
    6.873565   14.684918    0.113336
   16.510973    2.920412   17.142460
    5.508279   15.303511    0.520381
    4.466522    0.474954    1.343115
    3.448321   11.847730    6.471737
 
CELL_TYPES 5
1
1
1
1
1
 
POINT_DATA 5
SCALARS index float 1
LOOKUP_TABLE default
  1.0
  1.0
  1.0
  1.0
  1.0
