# vtk DataFile Version 3.0
a stupid file
ASCII
DATASET UNSTRUCTURED_GRID
POINTS 5 float
istep =         1000000
    6.873565   12.037744    0.113336
   16.510973    0.664421   17.142460
    5.508279    4.961210    0.520381
    4.466522    9.692525    1.343115
    3.448321    2.194663    6.471737
 
CELL_TYPES 5
1
1
1
1
1
 
POINT_DATA 5
SCALARS index float 1
LOOKUP_TABLE default
  1.0
  1.0
  1.0
  1.0
  1.0
