# vtk DataFile Version 3.0
a stupid file
ASCII
DATASET UNSTRUCTURED_GRID
POINTS 5 float
istep =        21100000
    6.873565   14.819314    0.113336
   16.510973   13.699535   17.142460
    5.508279    6.360801    0.520381
    4.466522    8.675652    1.343115
    3.448321   12.151300    6.471737
 
CELL_TYPES 5
1
1
1
1
1
 
POINT_DATA 5
SCALARS index float 1
LOOKUP_TABLE default
  1.0
  1.0
  1.0
  1.0
  1.0
