# vtk DataFile Version 3.0
a stupid file
ASCII
DATASET UNSTRUCTURED_GRID
POINTS 5 float
istep =        19600000
    6.873565    5.606712    0.113336
   16.510973    6.635133   17.142460
    5.508279   13.672255    0.520381
    4.466522   13.518903    1.343115
    3.448321    1.608684    6.471737
 
CELL_TYPES 5
1
1
1
1
1
 
POINT_DATA 5
SCALARS index float 1
LOOKUP_TABLE default
  1.0
  1.0
  1.0
  1.0
  1.0
