# vtk DataFile Version 3.0
a stupid file
ASCII
DATASET UNSTRUCTURED_GRID
POINTS 5 float
istep =          950000
    6.873565   12.913670    0.113336
   16.510973   17.582626   17.142460
    5.508279    5.796432    0.520381
    4.466522   10.445473    1.343115
    3.448321    2.434749    6.471737

CELL_TYPES 5
1
1
1
1
1

POINT_DATA 5
SCALARS index float 1
LOOKUP_TABLE default
  1.0
  1.0
  1.0
  1.0
  1.0
