# vtk DataFile Version 3.0
a stupid file
ASCII
DATASET UNSTRUCTURED_GRID
POINTS 5 float
istep =         4050000
    6.873565   11.841831    0.113336
   16.510973   15.620213   17.142460
    5.508279    7.248272    0.520381
    4.466522   16.998266    1.343115
    3.448321    5.294618    6.471737

CELL_TYPES 5
1
1
1
1
1

POINT_DATA 5
SCALARS index float 1
LOOKUP_TABLE default
  1.0
  1.0
  1.0
  1.0
  1.0
