# vtk DataFile Version 3.0
a stupid file
ASCII
DATASET UNSTRUCTURED_GRID
POINTS 5 float
istep =          450000
    6.873565    3.927739    0.113336
   16.510973    9.312761   17.142460
    5.508279   14.148647    0.520381
    4.466522    0.229762    1.343115
    3.448321    4.835608    6.471737

CELL_TYPES 5
1
1
1
1
1

POINT_DATA 5
SCALARS index float 1
LOOKUP_TABLE default
  1.0
  1.0
  1.0
  1.0
  1.0
