# vtk DataFile Version 3.0
a stupid file
ASCII
DATASET UNSTRUCTURED_GRID
POINTS 5 float
istep =         3550000
    6.873565    2.855900    0.113336
   16.510973    7.350348   17.142460
    5.508279   15.600488    0.520381
    4.466522    6.782556    1.343115
    3.448321    7.695477    6.471737

CELL_TYPES 5
1
1
1
1
1

POINT_DATA 5
SCALARS index float 1
LOOKUP_TABLE default
  1.0
  1.0
  1.0
  1.0
  1.0
