# vtk DataFile Version 3.0
a stupid file
ASCII
DATASET UNSTRUCTURED_GRID
POINTS 5 float
istep =         1700000
    6.873565   17.519971    0.113336
   16.510973   12.242232   17.142460
    5.508279   11.013301    0.520381
    4.466522   16.896443    1.343115
    3.448321   16.578653    6.471737

CELL_TYPES 5
1
1
1
1
1

POINT_DATA 5
SCALARS index float 1
LOOKUP_TABLE default
  1.0
  1.0
  1.0
  1.0
  1.0
