# vtk DataFile Version 3.0
a stupid file
ASCII
DATASET UNSTRUCTURED_GRID
POINTS 5 float
istep =         2450000
    6.873565    4.381081    0.113336
   16.510973    6.901837   17.142460
    5.508279   16.230169    0.520381
    4.466522    5.602222    1.343115
    3.448321   12.977365    6.471737

CELL_TYPES 5
1
1
1
1
1

POINT_DATA 5
SCALARS index float 1
LOOKUP_TABLE default
  1.0
  1.0
  1.0
  1.0
  1.0
